
  ___ ___ ___ _ _ _  
 |   |   |_  | | | | 
 | | | | | . | | | | 
 |__ |  _|___|_____|  24.7.0b1
 |___|_|             

User:   mnype@x146.nifl.fysik.dtu.dk
Date:   Wed Apr  2 09:16:38 2025
Arch:   x86_64
Pid:    327558
CWD:    /home/niflheim/mnype/electric_structure_course/GNR_project
Python: 3.11.3
gpaw:   /home/niflheim/mnype/venv/gpaw/gpaw (b72897e5b4)
_gpaw:  /home/niflheim/mnype/venv/gpaw/build/lib.linux-x86_64-broadwell_el8-cpython-311/
        _gpaw.cpython-311-x86_64-linux-gnu.so (0f9c35b285)
ase:    /home/niflheim/mnype/venv/ase/ase (version 3.23.1b1-15f188169e)
numpy:  /home/modules/software/SciPy-bundle/2023.07-gfbf-2023a/lib/python3.11/site-packages/numpy (version 1.25.1)
scipy:  /home/modules/software/SciPy-bundle/2023.07-gfbf-2023a/lib/python3.11/site-packages/scipy (version 1.11.1)
libxc:  6.2.2
units:  Angstrom and eV
cores: 6
OpenMP: False
OMP_NUM_THREADS: 1

Input parameters:
  kpts: [1 1 6]
  mode: {ecut: 500.0,
         name: pw}
  xc: PBE

System changes: positions, numbers, cell, pbc, initial_charges, initial_magmoms 

Initialize ...

species:
  C:
    name: Carbon
    id: 4aa54d4b901d75f77cc0ea3eec22967b
    Z: 6.0
    valence: 4
    core: 2
    charge: 0.0
    file: /home/modules/software/GPAW-setups/24.1.0/C.PBE.gz
    compensation charges: {type: gauss,
                           rc: 0.20,
                           lmax: 2}
    cutoffs: {filter: 1.14,
              core: 1.14}
    projectors:
      #              energy  rcut
      - 2s(2.00)   -13.751   0.635
      - 2p(2.00)    -5.284   0.635
      -  s          13.461   0.635
      -  p          21.927   0.635
      -  d           0.000   0.635
  
    # Using partial waves for C as LCAO basis

  H:
    name: Hydrogen
    id: d65de229564ff8ea4db303e23b6d1ecf
    Z: 1.0
    valence: 1
    core: 0
    charge: 0.0
    file: /home/modules/software/GPAW-setups/24.1.0/H.PBE.gz
    compensation charges: {type: gauss,
                           rc: 0.15,
                           lmax: 2}
    cutoffs: {filter: 0.85,
              core: 0.53}
    projectors:
      #              energy  rcut
      - 1s(1.00)    -6.494   0.476
      -  s          20.717   0.476
      -  p           0.000   0.476
  
    # Using partial waves for H as LCAO basis

Reference energy: -107173.087903  # eV

Spin-paired calculation

Convergence criteria:
 Maximum [total energy] change in last 3 cyles: 0.0005 eV / valence electron
 Maximum integral of absolute [dens]ity change: 0.0001 electrons / valence electron
 Maximum integral of absolute [eigenst]ate change: 4e-08 eV^2 / valence electron
 Maximum number of scf [iter]ations: 333
 (Square brackets indicate name in SCF output, whereas a 'c' in
 the SCF output indicates the quantity has converged.)

Symmetries present (total): 2

  ( 1  0  0)  ( 1  0  0)
  ( 0  1  0)  ( 0 -1  0)
  ( 0  0  1)  ( 0  0  1)

6 k-points: 1 x 1 x 6 Monkhorst-Pack grid
3 k-points in the irreducible part of the Brillouin zone
       k-points in crystal coordinates                weights
   0:     0.00000000    0.00000000    0.08333333          2/6
   1:     0.00000000    0.00000000    0.25000000          2/6
   2:     0.00000000    0.00000000    0.41666667          2/6

Wave functions: Plane wave expansion
  Cutoff energy: 500.000 eV
  Number of coefficients (min, max): 144666, 144781
  Pulay-stress correction: 0.000000 eV/Ang^3 (de/decut=0.000000)
  Using FFTW library
  ScaLapack parameters: grid=1x1, blocksize=None
  Wavefunction extrapolation:
    Improved wavefunction reuse through dual PAW basis 

Occupation numbers: Fermi-Dirac:
  width: 0.1000  # eV
 

Eigensolver
   Davidson(niter=2) 

Densities:
  Coarse grid: 120*54*135 grid
  Fine grid: 240*108*270 grid
  Total Charge: 0.000000 

Density mixing:
  Method: separate
  Backend: pulay
  Linear mixing parameter: 0.05
  old densities: 5
  Damping of long wavelength oscillations: 50 

Hamiltonian:
  XC and Coulomb potentials evaluated on a 240*108*270 grid
  Using the PBE Exchange-Correlation functional
  External potential:
    NoExternalPotential
 

XC parameters: PBE with 2 nearest neighbor stencil

Memory estimate:
  Process memory now: 570.93 MiB
  Calculator: 931.25 MiB
    Density: 216.44 MiB
      Arrays: 86.81 MiB
      Localized functions: 96.01 MiB
      Mixer: 33.62 MiB
    Hamiltonian: 59.10 MiB
      Arrays: 56.76 MiB
      XC: 0.00 MiB
      Poisson: 0.00 MiB
      vbar: 2.34 MiB
    Wavefunctions: 655.71 MiB
      Arrays psit_nG: 296.03 MiB
      Eigensolver: 312.52 MiB
      Projections: 3.01 MiB
      Projectors: 9.39 MiB
      PW-descriptor: 34.75 MiB

Total number of cores used: 6
Parallelization over k-points: 3
Domain decomposition: 1 x 1 x 2

Number of atoms: 128
Number of atomic orbitals: 440
Number of bands in calculation: 268
Number of valence electrons: 440
Bands to converge: occupied

... initialized

Initializing position-dependent things.

Density initialized from atomic densities
Creating initial wave functions:
  268 bands from LCAO basis set

       .------------------------------------------------------.  
      /|                                                      |  
     / |                                                      |  
    /  |                                                      |  
   /   |                                                      |  
  /    |            H    C     C      C     C    H            |  
 *     |              C     C      C     C     C              |  
 |     |              C     C      C     C     C              |  
 |     |            H    C     C      C     C    H            |  
 |     |                                                      |  
 |     |            H    C     C      C     C    H            |  
 |     |              C     C      C     C     C              |  
 |     |              C     C      C     C     C              |  
 |     |            H    C     C      C     C    H            |  
 |     |                                                      |  
 |     |            H    C     C      C     C                 |  
 |     |              C     C      C     C    H               |  
 |     |                                                      |  
 |     |         H    C     C      C     C H                  |  
 |     |           C     C     C      C                       |  
 |     |      H    C     C     C      C    H                  |  
 |     |        C     C     C      C     C                    |  
 |     |                                                      |  
 |     |      H C     C     C      C     C H                  |  
 |     |           C     C     C      C                       |  
 |     |           C     C     C      C                       |  
 |     |      H C     C     C      C     C H                  |  
 |     |                                                      |  
 |     |        C     C     C      C     C                    |  
 |     |      H    C     C     C      C    H                  |  
 |     |                                                      |  
 |     .---------H-C--C--C--C--C---C--C--C-H------------------.  
 |    /                                                      /   
 |   /                C     C      C     C    H             /    
 |  /               H    C     C      C     C              /     
 | /                                                      /      
 |/                                                      /       
 *------------------------------------------------------*        

Positions:
   0 C     13.608293    5.000000    0.000000    ( 0.0000,  0.0000,  0.0000)
   1 C     14.838049    5.000000    0.710000    ( 0.0000,  0.0000,  0.0000)
   2 C     14.838049    5.000000    2.130000    ( 0.0000,  0.0000,  0.0000)
   3 C     13.608293    5.000000    2.840000    ( 0.0000,  0.0000,  0.0000)
   4 C     13.608293    5.000000    4.260000    ( 0.0000,  0.0000,  0.0000)
   5 C     14.838049    5.000000    4.970000    ( 0.0000,  0.0000,  0.0000)
   6 C     14.838049    5.000000    6.390000    ( 0.0000,  0.0000,  0.0000)
   7 C     13.608293    5.000000    7.100000    ( 0.0000,  0.0000,  0.0000)
   8 C     13.608293    5.000000    8.520000    ( 0.0000,  0.0000,  0.0000)
   9 C     14.838049    5.000000    9.230000    ( 0.0000,  0.0000,  0.0000)
  10 C     14.838049    5.000000   10.650000    ( 0.0000,  0.0000,  0.0000)
  11 C     13.608293    5.000000   11.360000    ( 0.0000,  0.0000,  0.0000)
  12 C     13.608293    5.000000   12.780000    ( 0.0000,  0.0000,  0.0000)
  13 C     14.838049    5.000000   13.490000    ( 0.0000,  0.0000,  0.0000)
  14 C     14.838049    5.000000   14.910000    ( 0.0000,  0.0000,  0.0000)
  15 C     13.608293    5.000000   15.620000    ( 0.0000,  0.0000,  0.0000)
  16 C     13.608293    5.000000   17.040000    ( 0.0000,  0.0000,  0.0000)
  17 C     14.838049    5.000000   17.750000    ( 0.0000,  0.0000,  0.0000)
  18 C     14.838049    5.000000   19.170000    ( 0.0000,  0.0000,  0.0000)
  19 C     13.608293    5.000000   19.880000    ( 0.0000,  0.0000,  0.0000)
  20 C     13.608293    5.000000   21.300000    ( 0.0000,  0.0000,  0.0000)
  21 C     14.838049    5.000000   22.010000    ( 0.0000,  0.0000,  0.0000)
  22 C     14.838049    5.000000   23.430000    ( 0.0000,  0.0000,  0.0000)
  23 C     13.608293    5.000000   24.140000    ( 0.0000,  0.0000,  0.0000)
  24 C     11.148780    5.000000    0.000000    ( 0.0000,  0.0000,  0.0000)
  25 C     12.378536    5.000000    0.710000    ( 0.0000,  0.0000,  0.0000)
  26 C     12.378536    5.000000    2.130000    ( 0.0000,  0.0000,  0.0000)
  27 C     11.148780    5.000000    2.840000    ( 0.0000,  0.0000,  0.0000)
  28 C     11.148780    5.000000    4.260000    ( 0.0000,  0.0000,  0.0000)
  29 C     12.378536    5.000000    4.970000    ( 0.0000,  0.0000,  0.0000)
  30 C     12.378536    5.000000    6.390000    ( 0.0000,  0.0000,  0.0000)
  31 C     11.148780    5.000000    7.100000    ( 0.0000,  0.0000,  0.0000)
  32 C     11.148780    5.000000    8.520000    ( 0.0000,  0.0000,  0.0000)
  33 C     12.378536    5.000000    9.230000    ( 0.0000,  0.0000,  0.0000)
  34 C     12.378536    5.000000   10.650000    ( 0.0000,  0.0000,  0.0000)
  35 C     11.148780    5.000000   11.360000    ( 0.0000,  0.0000,  0.0000)
  36 C     11.148780    5.000000   12.780000    ( 0.0000,  0.0000,  0.0000)
  37 C     12.378536    5.000000   13.490000    ( 0.0000,  0.0000,  0.0000)
  38 C     12.378536    5.000000   14.910000    ( 0.0000,  0.0000,  0.0000)
  39 C     11.148780    5.000000   15.620000    ( 0.0000,  0.0000,  0.0000)
  40 C     11.148780    5.000000   17.040000    ( 0.0000,  0.0000,  0.0000)
  41 C     12.378536    5.000000   17.750000    ( 0.0000,  0.0000,  0.0000)
  42 C     12.378536    5.000000   19.170000    ( 0.0000,  0.0000,  0.0000)
  43 C     11.148780    5.000000   19.880000    ( 0.0000,  0.0000,  0.0000)
  44 C     11.148780    5.000000   21.300000    ( 0.0000,  0.0000,  0.0000)
  45 C     12.378536    5.000000   22.010000    ( 0.0000,  0.0000,  0.0000)
  46 C     12.378536    5.000000   23.430000    ( 0.0000,  0.0000,  0.0000)
  47 C     11.148780    5.000000   24.140000    ( 0.0000,  0.0000,  0.0000)
  48 C      8.689268    5.000000    0.000000    ( 0.0000,  0.0000,  0.0000)
  49 C      9.919024    5.000000    0.710000    ( 0.0000,  0.0000,  0.0000)
  50 C      9.919024    5.000000    2.130000    ( 0.0000,  0.0000,  0.0000)
  51 C      8.689268    5.000000    2.840000    ( 0.0000,  0.0000,  0.0000)
  52 C      8.689268    5.000000    4.260000    ( 0.0000,  0.0000,  0.0000)
  53 C      9.919024    5.000000    4.970000    ( 0.0000,  0.0000,  0.0000)
  54 C      9.919024    5.000000    6.390000    ( 0.0000,  0.0000,  0.0000)
  55 C      8.689268    5.000000    7.100000    ( 0.0000,  0.0000,  0.0000)
  56 C      8.689268    5.000000    8.520000    ( 0.0000,  0.0000,  0.0000)
  57 C      9.919024    5.000000    9.230000    ( 0.0000,  0.0000,  0.0000)
  58 C      9.919024    5.000000   10.650000    ( 0.0000,  0.0000,  0.0000)
  59 C      8.689268    5.000000   11.360000    ( 0.0000,  0.0000,  0.0000)
  60 C      8.689268    5.000000   12.780000    ( 0.0000,  0.0000,  0.0000)
  61 C      9.919024    5.000000   13.490000    ( 0.0000,  0.0000,  0.0000)
  62 C      9.919024    5.000000   14.910000    ( 0.0000,  0.0000,  0.0000)
  63 C      8.689268    5.000000   15.620000    ( 0.0000,  0.0000,  0.0000)
  64 C      8.689268    5.000000   17.040000    ( 0.0000,  0.0000,  0.0000)
  65 C      9.919024    5.000000   17.750000    ( 0.0000,  0.0000,  0.0000)
  66 C      9.919024    5.000000   19.170000    ( 0.0000,  0.0000,  0.0000)
  67 C      8.689268    5.000000   19.880000    ( 0.0000,  0.0000,  0.0000)
  68 C      8.689268    5.000000   21.300000    ( 0.0000,  0.0000,  0.0000)
  69 C      9.919024    5.000000   22.010000    ( 0.0000,  0.0000,  0.0000)
  70 C      9.919024    5.000000   23.430000    ( 0.0000,  0.0000,  0.0000)
  71 C      8.689268    5.000000   24.140000    ( 0.0000,  0.0000,  0.0000)
  72 C      7.459512    5.000000    0.710000    ( 0.0000,  0.0000,  0.0000)
  73 C      7.459512    5.000000    2.130000    ( 0.0000,  0.0000,  0.0000)
  74 C      7.459512    5.000000    4.970000    ( 0.0000,  0.0000,  0.0000)
  75 C      7.459512    5.000000    6.390000    ( 0.0000,  0.0000,  0.0000)
  76 C      7.459512    5.000000    9.230000    ( 0.0000,  0.0000,  0.0000)
  77 C      7.459512    5.000000   10.650000    ( 0.0000,  0.0000,  0.0000)
  78 C      7.459512    5.000000   13.490000    ( 0.0000,  0.0000,  0.0000)
  79 C      7.459512    5.000000   14.910000    ( 0.0000,  0.0000,  0.0000)
  80 C      7.459512    5.000000   17.750000    ( 0.0000,  0.0000,  0.0000)
  81 C      7.459512    5.000000   19.170000    ( 0.0000,  0.0000,  0.0000)
  82 C      7.459512    5.000000   22.010000    ( 0.0000,  0.0000,  0.0000)
  83 C      7.459512    5.000000   23.430000    ( 0.0000,  0.0000,  0.0000)
  84 C      6.229756    5.000000    2.840000    ( 0.0000,  0.0000,  0.0000)
  85 C      6.229756    5.000000    4.260000    ( 0.0000,  0.0000,  0.0000)
  86 C      5.000000    5.000000    4.970000    ( 0.0000,  0.0000,  0.0000)
  87 C      5.000000    5.000000    6.390000    ( 0.0000,  0.0000,  0.0000)
  88 C      6.229756    5.000000    7.100000    ( 0.0000,  0.0000,  0.0000)
  89 C      6.229756    5.000000    8.520000    ( 0.0000,  0.0000,  0.0000)
  90 C      5.000000    5.000000    9.230000    ( 0.0000,  0.0000,  0.0000)
  91 C      5.000000    5.000000   10.650000    ( 0.0000,  0.0000,  0.0000)
  92 C      6.229756    5.000000   11.360000    ( 0.0000,  0.0000,  0.0000)
  93 C      6.229756    5.000000   12.780000    ( 0.0000,  0.0000,  0.0000)
  94 C     16.067805    5.000000   15.620000    ( 0.0000,  0.0000,  0.0000)
  95 C     16.067805    5.000000   17.040000    ( 0.0000,  0.0000,  0.0000)
  96 C     17.297561    5.000000   17.750000    ( 0.0000,  0.0000,  0.0000)
  97 C     17.297561    5.000000   19.170000    ( 0.0000,  0.0000,  0.0000)
  98 C     16.067805    5.000000   19.880000    ( 0.0000,  0.0000,  0.0000)
  99 C     16.067805    5.000000   21.300000    ( 0.0000,  0.0000,  0.0000)
 100 C     17.297561    5.000000   22.010000    ( 0.0000,  0.0000,  0.0000)
 101 C     17.297561    5.000000   23.430000    ( 0.0000,  0.0000,  0.0000)
 102 C     16.067805    5.000000   24.140000    ( 0.0000,  0.0000,  0.0000)
 103 C     16.067805    5.000000    0.000000    ( 0.0000,  0.0000,  0.0000)
 104 H     15.782016    5.000000    2.675000    ( 0.0000,  0.0000,  0.0000)
 105 H     15.782016    5.000000    4.425000    ( 0.0000,  0.0000,  0.0000)
 106 H     15.782016    5.000000    6.935000    ( 0.0000,  0.0000,  0.0000)
 107 H     15.782016    5.000000    8.685000    ( 0.0000,  0.0000,  0.0000)
 108 H     15.782016    5.000000   11.195000    ( 0.0000,  0.0000,  0.0000)
 109 H     15.782016    5.000000   12.945000    ( 0.0000,  0.0000,  0.0000)
 110 H      6.515544    5.000000    0.165000    ( 0.0000,  0.0000,  0.0000)
 111 H      6.515544    5.000000   15.455000    ( 0.0000,  0.0000,  0.0000)
 112 H      6.515544    5.000000   17.205000    ( 0.0000,  0.0000,  0.0000)
 113 H      6.515544    5.000000   19.715000    ( 0.0000,  0.0000,  0.0000)
 114 H      6.515544    5.000000   21.465000    ( 0.0000,  0.0000,  0.0000)
 115 H      6.515544    5.000000   23.975000    ( 0.0000,  0.0000,  0.0000)
 116 H      5.285788    5.000000    2.295000    ( 0.0000,  0.0000,  0.0000)
 117 H      4.056032    5.000000    4.425000    ( 0.0000,  0.0000,  0.0000)
 118 H      4.056032    5.000000    6.935000    ( 0.0000,  0.0000,  0.0000)
 119 H      4.056032    5.000000    8.685000    ( 0.0000,  0.0000,  0.0000)
 120 H      4.056032    5.000000   11.195000    ( 0.0000,  0.0000,  0.0000)
 121 H      5.285788    5.000000   13.325000    ( 0.0000,  0.0000,  0.0000)
 122 H     17.011772    5.000000   15.075000    ( 0.0000,  0.0000,  0.0000)
 123 H     18.241528    5.000000   17.205000    ( 0.0000,  0.0000,  0.0000)
 124 H     18.241528    5.000000   19.715000    ( 0.0000,  0.0000,  0.0000)
 125 H     18.241528    5.000000   21.465000    ( 0.0000,  0.0000,  0.0000)
 126 H     18.241528    5.000000   23.975000    ( 0.0000,  0.0000,  0.0000)
 127 H     17.011772    5.000000    0.545000    ( 0.0000,  0.0000,  0.0000)

Unit cell:
           periodic     x           y           z      points  spacing
  1. axis:    no    22.297561    0.000000    0.000000   120     0.1858
  2. axis:    no     0.000000   10.000000    0.000000    54     0.1852
  3. axis:    yes    0.000000    0.000000   25.560000   135     0.1893

  Lengths:  22.297561  10.000000  25.560000
  Angles:   90.000000  90.000000  90.000000

Effective grid spacing dv^(1/3) = 0.1868

     iter     time        total  log10-change:
                         energy   eigst   dens
iter:   1 09:20:07 -1096.213971
